LAMMPS data file via write_data, version 23 Jun 2022, timestep = 4000

400 atoms
2 atom types
400 ellipsoids

53.93442029850526 87.48693593880353 xlo xhi
53.93442029850526 87.48693593880353 ylo yhi
-3.5355339059327378 3.5355339059327378 zlo zhi

Masses

1 0
2 0

Pair Coeffs # gayberne

1 3 1 1 1 1 1 1 1
2 1 1 1 1 0.2 1 1 0.2

Atoms # hybrid

4 1 56.17676908319189 56.172862624715336 0 0 -1 1 1.909859317102744 0 0 0
49 1 61.19184615688568 68.92307764700081 0 0 -1 1 1.909859317102744 0 0 0
2 2 60.82699290157979 55.061231458243206 0 0 -1 1 0.954929658551372 0 0 0
48 1 60.33104111582074 69.44191111059651 0 0 -1 1 1.909859317102744 0 0 0
9 2 57.64272978991769 55.162255903896416 0 0 -1 1 0.954929658551372 0 0 0
314 1 54.746962092378716 55.798075187518975 0 0 -1 1 1.909859317102744 1 0 0
112 1 61.7666431258667 57.23591710159954 0 0 -1 1 1.909859317102744 0 0 0
6 1 55.25653292256594 60.94458619819513 0 0 -1 1 1.909859317102744 0 0 0
16 1 55.761224646250255 58.3685706259213 0 0 -1 1 1.909859317102744 0 0 0
310 1 55.5228639906317 56.98346736257488 0 0 -1 1 1.909859317102744 1 0 0
1 1 59.16781980993467 56.66457783669712 0 0 -1 1 1.909859317102744 0 0 0
7 1 61.32458885280678 56.08565964291437 0 0 -1 1 1.909859317102744 0 0 0
13 1 60.53975711412986 57.4100868998706 0 0 -1 1 1.909859317102744 0 0 0
15 1 61.14751100915394 59.248249064297426 0 0 -1 1 1.909859317102744 0 0 0
58 1 60.82126568162206 70.54026544229293 0 0 -1 1 1.909859317102744 0 0 0
17 1 55.28110072335954 59.364237558052025 0 0 -1 1 1.909859317102744 0 0 0
21 1 55.42312439143853 62.2522356010368 0 0 -1 1 1.909859317102744 0 0 0
24 1 60.075673896644076 59.794573852358184 0 0 -1 1 1.909859317102744 0 0 0
22 1 59.72221943169686 58.03670722853035 0 0 -1 1 1.909859317102744 0 0 0
19 1 59.31359177459294 63.839194739977486 0 0 -1 1 1.909859317102744 0 0 0
18 1 61.42577124854972 61.408497118205545 0 0 -1 1 1.909859317102744 0 0 0
46 1 59.13479059132722 69.44940322618277 0 0 -1 1 1.909859317102744 0 0 0
30 1 60.26595254599651 61.43611630216731 0 0 -1 1 1.909859317102744 0 0 0
25 1 60.470716133665334 63.4997715384318 0 0 -1 1 1.909859317102744 0 0 0
32 1 56.00030229129028 63.083652762502204 0 0 -1 1 1.909859317102744 0 0 0
355 2 54.04036625265427 67.93453602959453 0 0 -1 1 0.954929658551372 1 0 0
23 1 57.343073212021146 64.53013798435957 0 0 -1 1 1.909859317102744 0 0 0
27 1 56.55174081584775 65.15862183127784 0 0 -1 1 1.909859317102744 0 0 0
33 1 58.48088081557741 65.52309556873064 0 0 -1 1 1.909859317102744 0 0 0
43 1 57.9496500107125 63.50315204617003 0 0 -1 1 1.909859317102744 0 0 0
34 1 57.46751831493679 65.8176513792222 0 0 -1 1 1.909859317102744 0 0 0
126 1 58.430262164542036 64.47815730957743 0 0 -1 1 1.909859317102744 0 0 0
29 1 59.471914769338355 65.1618517052769 0 0 -1 1 1.909859317102744 0 0 0
35 1 60.63542135492031 64.6164396999652 0 0 -1 1 1.909859317102744 0 0 0
38 1 60.20587267574064 68.2819007249786 0 0 -1 1 1.909859317102744 0 0 0
42 1 57.66637042057691 69.73259692610938 0 0 -1 1 1.909859317102744 0 0 0
41 2 54.08389541268198 66.55198849675827 0 0 -1 1 0.954929658551372 0 0 0
37 1 56.29018829318371 66.1972476430017 0 0 -1 1 1.909859317102744 0 0 0
40 1 57.195827990461886 67.59762228303936 0 0 -1 1 1.909859317102744 0 0 0
54 1 59.403513930453336 67.45978512359208 0 0 -1 1 1.909859317102744 0 0 0
45 1 61.12634648834083 67.04870534262403 0 0 -1 1 1.909859317102744 0 0 0
39 1 58.27612366795024 66.54574848519371 0 0 -1 1 1.909859317102744 0 0 0
121 1 59.462393599073216 66.36363622237975 0 0 -1 1 1.909859317102744 0 0 0
44 1 60.53740528549973 66.15465184397941 0 0 -1 1 1.909859317102744 0 0 0
128 1 61.79946623339697 65.92446474803245 0 0 -1 1 1.909859317102744 0 0 0
50 1 62.21929674717422 66.92301826576993 0 0 -1 1 1.909859317102744 0 0 0
20 1 61.68287058643254 63.75049248057957 0 0 -1 1 1.909859317102744 0 0 0
28 1 54.4844841906613 63.44816446853586 0 0 -1 1 1.909859317102744 0 0 0
14 1 62.31313852037496 54.93458972473112 0 0 -1 1 1.909859317102744 0 0 0
12 1 54.21300664994114 60.92744127114922 0 0 -1 1 1.909859317102744 0 0 0
122 1 62.27123943510378 59.23912489910459 0 0 -1 1 1.909859317102744 0 0 0
53 1 62.198618371713295 70.51382005267929 0 0 -1 1 1.909859317102744 0 0 0
303 1 53.961150450580945 56.54971799009215 0 0 -1 1 1.909859317102744 1 0 0
57 1 56.699331321303355 74.50278184223016 0 0 -1 1 1.909859317102744 0 0 0
64 1 58.33561344278737 71.58626202159132 0 0 -1 1 1.909859317102744 0 0 0
90 1 61.77939883445013 84.6499979416992 0 0 -1 1 1.909859317102744 0 0 0
51 1 59.55510808319856 71.97619773833289 0 0 -1 1 1.909859317102744 0 0 0
98 1 55.259632375199644 84.44847284179826 0 0 -1 1 1.909859317102744 0 0 0
70 1 62.313253246298224 72.56881442846627 0 0 -1 1 1.909859317102744 0 0 0
78 1 62.221722396726946 79.03118802189198 0 0 -1 1 1.909859317102744 0 0 0
61 1 54.87570696382084 73.16555184612801 0 0 -1 1 1.909859317102744 0 0 0
68 1 55.27835709277562 74.7772894617601 0 0 -1 1 1.909859317102744 0 0 0
77 1 55.62083533951154 76.17837395048598 0 0 -1 1 1.909859317102744 0 0 0
47 1 60.003971357579324 76.73809191229833 0 0 -1 1 1.909859317102744 0 0 0
67 1 57.71711961917972 77.83658818541025 0 0 -1 1 1.909859317102744 0 0 0
63 1 58.80207995999091 76.90710619308487 0 0 -1 1 1.909859317102744 0 0 0
69 1 61.216835681944026 72.74370984817843 0 0 -1 1 1.909859317102744 0 0 0
157 1 61.451661389493566 75.28813851779618 0 0 -1 1 1.909859317102744 0 0 0
95 2 57.96496248873608 85.72761526846864 0 0 -1 1 0.954929658551372 0 0 0
305 2 54.09734719393207 86.39360117184384 0 0 -1 1 0.954929658551372 1 -1 0
74 2 59.39792651006361 79.71014615523886 0 0 -1 1 0.954929658551372 0 0 0
52 1 59.74556312855203 70.94142711156196 0 0 -1 1 1.909859317102744 0 0 0
82 1 56.12629522946958 83.75114026972979 0 0 -1 1 1.909859317102744 0 0 0
83 1 55.280150117882236 82.75554481750463 0 0 -1 1 1.909859317102744 0 0 0
88 1 56.54372531859017 82.69401190227624 0 0 -1 1 1.909859317102744 0 0 0
79 1 56.402827714430856 81.54900985157076 0 0 -1 1 1.909859317102744 0 0 0
80 1 56.954450063179955 79.16863331500475 0 0 -1 1 1.909859317102744 0 0 0
89 1 54.87030671874801 80.4851251624047 0 0 -1 1 1.909859317102744 0 0 0
93 1 54.36017503634725 83.36716592576813 0 0 -1 1 1.909859317102744 0 0 0
87 2 58.51732004954979 83.64051011167624 0 0 -1 1 0.954929658551372 0 0 0
100 1 56.101346038574455 79.912404378024 0 0 -1 1 1.909859317102744 0 0 0
196 1 57.681857515970144 82.48377570549233 0 0 -1 1 1.909859317102744 0 0 0
97 1 60.23250037567045 82.06575529474232 0 0 -1 1 1.909859317102744 0 0 0
84 1 60.40987337714765 83.09653405538131 0 0 -1 1 1.909859317102744 0 0 0
3 1 55.32353498603288 86.52247699393894 0 0 -1 1 1.909859317102744 0 -1 0
72 1 54.35889742389333 78.73593776412021 0 0 -1 1 1.909859317102744 0 0 0
8 1 55.444811187602234 85.49010757307713 0 0 -1 1 1.909859317102744 0 -1 0
101 2 60.70357872042307 85.54959127639174 0 0 -1 1 0.954929658551372 0 -1 0
94 1 61.20994222914925 82.5148789868043 0 0 -1 1 1.909859317102744 0 0 0
85 1 61.34003156854848 83.7373402590265 0 0 -1 1 1.909859317102744 0 0 0
59 1 61.46161883212451 73.94812036045776 0 0 -1 1 1.909859317102744 0 0 0
56 2 55.95701142234637 71.23683097762245 0 0 -1 1 0.954929658551372 0 0 0
296 1 70.48820927108703 54.430876250826195 0 0 -1 1 1.909859317102744 0 1 0
113 1 62.90776589913837 57.28852688597489 0 0 -1 1 1.909859317102744 0 0 0
236 1 69.63427708694414 62.410519803203044 0 0 -1 1 1.909859317102744 0 0 0
5 1 63.39706366482311 55.16119969034788 0 0 -1 1 1.909859317102744 0 0 0
103 1 63.67540181501289 56.20211074646601 0 0 -1 1 1.909859317102744 0 0 0
108 1 68.55546272803912 56.097256778335804 0 0 -1 1 1.909859317102744 0 0 0
201 1 69.29601183748314 53.95707204732982 0 0 -1 1 1.909859317102744 0 0 0
142 1 69.32726248959143 69.54717345890055 0 0 -1 1 1.909859317102744 0 0 0
206 1 69.7534419508115 55.3005221605652 0 0 -1 1 1.909859317102744 0 0 0
117 2 64.85650495080459 57.90170657284884 0 0 -1 1 0.954929658551372 0 0 0
106 1 62.421776523144125 56.26249848358366 0 0 -1 1 1.909859317102744 0 0 0
10 1 67.02938661626332 57.12007367684678 0 0 -1 1 1.909859317102744 0 0 0
125 1 68.2466655662855 58.731944159090936 0 0 -1 1 1.909859317102744 0 0 0
115 2 68.82427210913991 57.66076717488568 0 0 -1 1 0.954929658551372 0 0 0
152 1 64.06558240757288 65.83956660539646 0 0 -1 1 1.909859317102744 0 0 0
211 1 67.30859217265173 59.72725641505233 0 0 -1 1 1.909859317102744 0 0 0
114 2 63.508400975183086 60.29548420968266 0 0 -1 1 0.954929658551372 0 0 0
216 1 65.93225907262003 59.649290483078275 0 0 -1 1 1.909859317102744 0 0 0
212 1 68.39610970072263 59.73790889415922 0 0 -1 1 1.909859317102744 0 0 0
226 1 67.72521738276217 61.0762643508832 0 0 -1 1 1.909859317102744 0 0 0
147 2 62.43831395422423 68.1584343859286 0 0 -1 1 0.954929658551372 0 0 0
124 1 64.02681366734447 62.23162877701854 0 0 -1 1 1.909859317102744 0 0 0
118 1 64.46573771879615 60.934468351013535 0 0 -1 1 1.909859317102744 0 0 0
119 1 65.07429470648036 62.91139989698482 0 0 -1 1 1.909859317102744 0 0 0
130 1 68.35191618387547 61.99442342509808 0 0 -1 1 1.909859317102744 0 0 0
127 1 66.09210594621813 63.195834342521934 0 0 -1 1 1.909859317102744 0 0 0
143 1 65.26692082884482 63.99911977278393 0 0 -1 1 1.909859317102744 0 0 0
120 1 68.8693667071072 60.74968540537829 0 0 -1 1 1.909859317102744 0 0 0
227 1 69.86329396697704 59.58710368913212 0 0 -1 1 1.909859317102744 0 0 0
135 1 68.04032999980873 63.84680671357567 0 0 -1 1 1.909859317102744 0 0 0
55 1 64.06637136622633 70.4769156130171 0 0 -1 1 1.909859317102744 0 0 0
132 1 62.922242710630066 66.07753717229673 0 0 -1 1 1.909859317102744 0 0 0
138 1 63.48706837428823 67.18824069368526 0 0 -1 1 1.909859317102744 0 0 0
141 1 64.87157026359364 65.11319356460587 0 0 -1 1 1.909859317102744 0 0 0
116 1 62.54072555960067 61.21134483422488 0 0 -1 1 1.909859317102744 0 0 0
133 1 66.13048468727962 66.2530005180903 0 0 -1 1 1.909859317102744 0 0 0
136 1 66.30063894146869 65.0150396705177 0 0 -1 1 1.909859317102744 0 0 0
137 1 68.32511323563261 67.44938271846833 0 0 -1 1 1.909859317102744 0 0 0
148 1 67.14039080566906 67.16161529130657 0 0 -1 1 1.909859317102744 0 0 0
150 1 70.20793074835649 68.8671881851974 0 0 -1 1 1.909859317102744 0 0 0
123 2 68.45478593712585 65.53017816973004 0 0 -1 1 0.954929658551372 0 0 0
131 2 62.79013268152642 64.28213384177427 0 0 -1 1 0.954929658551372 0 0 0
140 1 69.62526333966665 66.26726797287127 0 0 -1 1 1.909859317102744 0 0 0
153 2 64.64916131226208 68.16532427580141 0 0 -1 1 0.954929658551372 0 0 0
107 1 64.36170340084952 54.67636594345793 0 0 -1 1 1.909859317102744 0 0 0
151 1 63.27011963780388 69.3947373588264 0 0 -1 1 1.909859317102744 0 0 0
134 1 70.55150313778647 65.11782259568892 0 0 -1 1 1.909859317102744 0 0 0
149 1 67.07811988061786 68.39077327983549 0 0 -1 1 1.909859317102744 0 0 0
146 1 64.80463151635847 71.65568015801833 0 0 -1 1 1.909859317102744 0 0 0
293 1 70.65532975310235 85.72476438918473 0 0 -1 1 1.909859317102744 0 0 0
60 1 63.082607320388426 73.35548509793188 0 0 -1 1 1.909859317102744 0 0 0
65 1 64.06836481530193 72.44636874930521 0 0 -1 1 1.909859317102744 0 0 0
158 1 65.12604421267442 72.86803954904954 0 0 -1 1 1.909859317102744 0 0 0
154 1 65.88206428796164 72.12469826005507 0 0 -1 1 1.909859317102744 0 0 0
160 1 66.94124367446108 71.67518743809713 0 0 -1 1 1.909859317102744 0 0 0
163 1 65.95411164017997 74.9322567632621 0 0 -1 1 1.909859317102744 0 0 0
261 1 65.82383967490651 73.87137987103591 0 0 -1 1 1.909859317102744 0 0 0
200 1 70.35438263876516 84.48064941387024 0 0 -1 1 1.909859317102744 0 0 0
155 2 67.7953282612582 72.87604501011783 0 0 -1 1 0.954929658551372 0 0 0
194 2 68.11200957214889 87.07073061961547 0 0 -1 1 0.954929658551372 0 0 0
162 1 63.64895952854851 74.51377577449132 0 0 -1 1 1.909859317102744 0 0 0
168 1 64.10806039544914 73.60046301086899 0 0 -1 1 1.909859317102744 0 0 0
164 1 66.89894248134709 74.02118216980794 0 0 -1 1 1.909859317102744 0 0 0
169 1 67.57685048757148 75.21891679976613 0 0 -1 1 1.909859317102744 0 0 0
174 1 68.12417282011738 74.17381232654542 0 0 -1 1 1.909859317102744 0 0 0
256 1 70.12629348480186 73.8951320495119 0 0 -1 1 1.909859317102744 0 0 0
266 1 70.29164315745325 75.2080396722401 0 0 -1 1 1.909859317102744 0 0 0
165 1 69.37466197715943 74.45390794457329 0 0 -1 1 1.909859317102744 0 0 0
192 1 67.03175750707801 86.04429671716215 0 0 -1 1 1.909859317102744 0 0 0
177 1 63.375162640792624 75.76875147119969 0 0 -1 1 1.909859317102744 0 0 0
166 1 65.16334984912655 78.29592756770315 0 0 -1 1 1.909859317102744 0 0 0
167 1 62.740077415848496 77.91362235531533 0 0 -1 1 1.909859317102744 0 0 0
178 1 64.87400306431788 79.5023356566097 0 0 -1 1 1.909859317102744 0 0 0
172 1 66.03693243203114 76.06473849164551 0 0 -1 1 1.909859317102744 0 0 0
171 1 68.23613725809693 76.60266029603879 0 0 -1 1 1.909859317102744 0 0 0
75 1 67.16382035030216 76.26089718840925 0 0 -1 1 1.909859317102744 0 0 0
187 1 65.99297885720178 79.37602468449215 0 0 -1 1 1.909859317102744 0 0 0
173 1 68.69137348591329 75.53113149319064 0 0 -1 1 1.909859317102744 0 0 0
179 2 69.4905946797875 77.34505727640038 0 0 -1 1 0.954929658551372 0 0 0
104 2 64.5898364629429 85.9277000834591 0 0 -1 1 0.954929658551372 0 -1 0
181 2 62.399951503488936 80.45639807670995 0 0 -1 1 0.954929658551372 0 0 0
190 1 68.36367375646022 82.78561717889865 0 0 -1 1 1.909859317102744 0 0 0
191 1 64.44444911862739 83.74113275221616 0 0 -1 1 1.909859317102744 0 0 0
186 1 62.44894731308738 83.35575422559876 0 0 -1 1 1.909859317102744 0 0 0
182 1 67.93960581636668 81.41906500395831 0 0 -1 1 1.909859317102744 0 0 0
183 1 64.93162725443139 82.0440436318632 0 0 -1 1 1.909859317102744 0 0 0
188 1 70.13889123021872 80.71722794114035 0 0 -1 1 1.909859317102744 0 0 0
193 1 64.01417000661408 82.73089263295188 0 0 -1 1 1.909859317102744 0 0 0
195 1 62.566745473554626 82.17192366801034 0 0 -1 1 1.909859317102744 0 0 0
176 1 67.20929638263861 82.1903787692317 0 0 -1 1 1.909859317102744 0 0 0
286 1 66.07348203058199 81.6160085684699 0 0 -1 1 1.909859317102744 0 0 0
259 1 70.48580859274622 72.89658036084788 0 0 -1 1 1.909859317102744 0 0 0
105 1 68.93632222773348 85.58485529709766 0 0 -1 1 1.909859317102744 0 -1 0
189 1 70.09118418199282 86.6340779716828 0 0 -1 1 1.909859317102744 0 0 0
291 1 68.96085258294352 83.62740502529678 0 0 -1 1 1.909859317102744 0 0 0
102 1 62.789411394451214 84.87307737539203 0 0 -1 1 1.909859317102744 0 -1 0
197 1 63.52633395009303 86.72903559784804 0 0 -1 1 1.909859317102744 0 0 0
198 1 65.96626791888522 83.89092540735668 0 0 -1 1 1.909859317102744 0 0 0
161 1 62.64452342433232 75.00792971341943 0 0 -1 1 1.909859317102744 0 0 0
139 1 70.10459111951094 71.23780318949846 0 0 -1 1 1.909859317102744 0 0 0
159 1 67.90525485973949 71.00111336441262 0 0 -1 1 1.909859317102744 0 0 0
156 1 65.83560925120244 71.02538951436676 0 0 -1 1 1.909859317102744 0 0 0
111 1 62.37602903139281 87.00847637906175 0 0 -1 1 1.909859317102744 0 -1 0
207 1 75.54450141298533 56.95656400677187 0 0 -1 1 1.909859317102744 0 0 0
213 1 71.98785668947389 55.19907769896255 0 0 -1 1 1.909859317102744 0 0 0
109 1 70.91954127714826 56.696698194531166 0 0 -1 1 1.909859317102744 0 0 0
214 2 72.57864285163306 57.336256227025615 0 0 -1 1 0.954929658551372 0 0 0
215 1 76.37682770885652 54.46615895192677 0 0 -1 1 1.909859317102744 0 0 0
110 1 70.79507986785816 55.63653709339164 0 0 -1 1 1.909859317102744 0 0 0
219 2 76.77817928032712 58.00852911251211 0 0 -1 1 0.954929658551372 0 0 0
346 1 78.07886766739058 69.72082831338018 0 0 -1 1 1.909859317102744 0 0 0
221 2 71.72136507761282 58.51135447604227 0 0 -1 1 0.954929658551372 0 0 0
217 1 71.34048555562053 59.71923190302562 0 0 -1 1 1.909859317102744 0 0 0
233 1 70.83839933823953 60.98612046807476 0 0 -1 1 1.909859317102744 0 0 0
260 1 73.3284613478981 70.01550532378319 0 0 -1 1 1.909859317102744 0 0 0
223 1 74.84483060628757 59.853835450386875 0 0 -1 1 1.909859317102744 0 0 0
229 1 73.36749632849327 59.84896344488649 0 0 -1 1 1.909859317102744 0 0 0
326 1 75.13146483577998 61.23111044653685 0 0 -1 1 1.909859317102744 0 0 0
235 1 72.71454090990107 60.75151289935159 0 0 -1 1 1.909859317102744 0 0 0
230 1 74.09688918700243 60.841362980574075 0 0 -1 1 1.909859317102744 0 0 0
185 1 72.9471385795148 54.41477013108747 0 0 -1 1 1.909859317102744 0 1 0
225 1 77.59193133216792 61.20015168358295 0 0 -1 1 1.909859317102744 0 0 0
231 1 71.442035406485 63.00158914135277 0 0 -1 1 1.909859317102744 0 0 0
218 1 73.01078544344297 63.003323038055115 0 0 -1 1 1.909859317102744 0 0 0
224 1 72.27533758293434 63.77624724661972 0 0 -1 1 1.909859317102744 0 0 0
234 1 71.93448209954346 61.936105582313225 0 0 -1 1 1.909859317102744 0 0 0
238 1 75.40686136284633 62.350997745497146 0 0 -1 1 1.909859317102744 0 0 0
332 1 74.02783171347156 61.99966892997376 0 0 -1 1 1.909859317102744 0 0 0
336 1 75.5566565436162 64.92618905247845 0 0 -1 1 1.909859317102744 0 0 0
321 1 77.32274335815761 63.57460125505813 0 0 -1 1 1.909859317102744 0 0 0
241 1 70.82391100749109 67.79328831866121 0 0 -1 1 1.909859317102744 0 0 0
228 1 72.1879904903066 64.91192449329331 0 0 -1 1 1.909859317102744 0 0 0
232 2 73.63736585528332 64.1775927062471 0 0 -1 1 0.954929658551372 0 0 0
237 1 70.83079946743293 66.70611985085523 0 0 -1 1 1.909859317102744 0 0 0
144 1 74.39930597202547 65.12703307097149 0 0 -1 1 1.909859317102744 0 0 0
145 1 76.32804434785733 66.00408781195895 0 0 -1 1 1.909859317102744 0 0 0
249 1 74.89959470227721 64.11463071883065 0 0 -1 1 1.909859317102744 0 0 0
248 1 77.00541978309951 64.5784642839833 0 0 -1 1 1.909859317102744 0 0 0
252 1 72.92973273990664 68.91958975870988 0 0 -1 1 1.909859317102744 0 0 0
331 1 77.63567663523271 66.55414318125769 0 0 -1 1 1.909859317102744 0 0 0
208 1 73.39503038350001 55.9094786218089 0 0 -1 1 1.909859317102744 0 0 0
311 1 77.87192665987907 65.48089472400817 0 0 -1 1 1.909859317102744 0 0 0
246 1 71.20161245392116 69.6082234031047 0 0 -1 1 1.909859317102744 0 0 0
253 1 71.97377386269315 66.93126865568834 0 0 -1 1 1.909859317102744 0 0 0
240 1 75.33998525067277 66.3291972007967 0 0 -1 1 1.909859317102744 0 0 0
247 1 75.80849326637711 68.1852225886748 0 0 -1 1 1.909859317102744 0 0 0
243 1 76.52866037469494 67.35832378661588 0 0 -1 1 1.909859317102744 0 0 0
244 1 74.76219308241059 68.70073753021245 0 0 -1 1 1.909859317102744 0 0 0
245 1 71.68519570633434 68.72081863557702 0 0 -1 1 1.909859317102744 0 0 0
222 1 70.79559597993483 62.10722311575852 0 0 -1 1 1.909859317102744 0 0 0
239 1 77.25817984654542 68.10677975208017 0 0 -1 1 1.909859317102744 0 0 0
356 1 75.11006026305986 69.97046388016814 0 0 -1 1 1.909859317102744 0 0 0
129 1 71.18149082757773 64.07385525799549 0 0 -1 1 1.909859317102744 0 0 0
242 1 72.33927971764635 69.91733187904462 0 0 -1 1 1.909859317102744 0 0 0
338 1 78.74493799724183 66.31650885606753 0 0 -1 1 1.909859317102744 0 0 0
209 1 74.99890726120803 54.02524501737681 0 0 -1 1 1.909859317102744 0 0 0
202 1 71.54306901607018 53.96865041622538 0 0 -1 1 1.909859317102744 0 0 0
254 2 72.72961948630508 72.78508579006231 0 0 -1 1 0.954929658551372 0 0 0
199 1 71.35441357461093 84.25167280814318 0 0 -1 1 1.909859317102744 0 0 0
392 1 77.92942040913572 84.13916971813973 0 0 -1 1 1.909859317102744 0 0 0
255 1 75.60887493747865 72.50122799430763 0 0 -1 1 1.909859317102744 0 0 0
257 1 74.4800923202183 72.95074142245393 0 0 -1 1 1.909859317102744 0 0 0
379 1 78.77922005235217 77.23016968834143 0 0 -1 1 1.909859317102744 0 0 0
170 1 73.16457322914984 75.90056592936304 0 0 -1 1 1.909859317102744 0 0 0
250 1 76.72544374332513 73.05809763410618 0 0 -1 1 1.909859317102744 0 0 0
204 1 75.33753036539922 84.89905015491274 0 0 -1 1 1.909859317102744 0 -1 0
262 1 73.37859294010426 73.79868768778887 0 0 -1 1 1.909859317102744 0 0 0
272 1 75.30110575810828 75.05014628751356 0 0 -1 1 1.909859317102744 0 0 0
175 1 71.33229041577034 75.48158846608264 0 0 -1 1 1.909859317102744 0 0 0
268 1 73.7241597278116 74.9274665269935 0 0 -1 1 1.909859317102744 0 0 0
271 1 72.34802997227499 78.54653013754184 0 0 -1 1 1.909859317102744 0 0 0
258 1 72.41824040758851 74.66967531223617 0 0 -1 1 1.909859317102744 0 0 0
263 1 74.39701466408485 73.97021314623768 0 0 -1 1 1.909859317102744 0 0 0
269 1 75.76654101127484 73.65289481144957 0 0 -1 1 1.909859317102744 0 0 0
275 2 76.26347586262958 75.90046648732462 0 0 -1 1 0.954929658551372 0 0 0
265 1 77.92785984132348 72.55713140033066 0 0 -1 1 1.909859317102744 0 0 0
264 1 77.73542071955463 73.57967586161982 0 0 -1 1 1.909859317102744 0 0 0
270 1 78.43248146229654 74.64182284435697 0 0 -1 1 1.909859317102744 0 0 0
205 1 73.46619083842161 84.75950290605888 0 0 -1 1 1.909859317102744 0 -1 0
298 1 73.90198566526743 86.91457464683104 0 0 -1 1 1.909859317102744 0 0 0
276 1 71.54451325425065 77.70519949883854 0 0 -1 1 1.909859317102744 0 0 0
180 1 71.17869422938112 76.50388239401371 0 0 -1 1 1.909859317102744 0 0 0
287 1 72.29183578633432 80.00431673732189 0 0 -1 1 1.909859317102744 0 0 0
278 1 73.42633516893703 78.88914426742667 0 0 -1 1 1.909859317102744 0 0 0
277 1 74.8872697188596 77.94515837318242 0 0 -1 1 1.909859317102744 0 0 0
273 1 74.23244259714521 75.9943509158351 0 0 -1 1 1.909859317102744 0 0 0
279 1 72.94089037402127 77.13087208784823 0 0 -1 1 1.909859317102744 0 0 0
371 2 78.52270999024667 76.03577766776444 0 0 -1 1 0.954929658551372 0 0 0
386 1 77.78038573425746 77.89652585022111 0 0 -1 1 1.909859317102744 0 0 0
184 2 71.20775092277422 80.2938348162982 0 0 -1 1 0.954929658551372 0 0 0
288 1 71.64505618714514 82.36423934712096 0 0 -1 1 1.909859317102744 0 0 0
282 1 72.22793405917821 81.14272604617868 0 0 -1 1 1.909859317102744 0 0 0
299 1 74.48213303752539 85.68359171436151 0 0 -1 1 1.909859317102744 0 0 0
283 1 74.38141147467644 80.97707540365914 0 0 -1 1 1.909859317102744 0 0 0
381 1 72.76955735519415 82.62157964361427 0 0 -1 1 1.909859317102744 0 0 0
285 1 75.99851648464043 78.64963138172283 0 0 -1 1 1.909859317102744 0 0 0
376 1 73.4675953730813 80.22094271764679 0 0 -1 1 1.909859317102744 0 0 0
289 1 75.37911849340524 81.38595616533497 0 0 -1 1 1.909859317102744 0 0 0
382 1 77.26777306885187 78.9188539945856 0 0 -1 1 1.909859317102744 0 0 0
391 2 76.02285067951557 80.32549676031802 0 0 -1 1 0.954929658551372 0 0 0
294 1 74.8443213317724 82.81396729466204 0 0 -1 1 1.909859317102744 0 0 0
378 1 76.8234327678724 77.6951251084652 0 0 -1 1 1.909859317102744 0 0 0
274 1 71.89922133564578 83.3526866178566 0 0 -1 1 1.909859317102744 0 0 0
280 1 72.83935649325207 83.71722176381074 0 0 -1 1 1.909859317102744 0 0 0
251 1 71.13066716831364 74.3628458615231 0 0 -1 1 1.909859317102744 0 0 0
292 1 71.96755537812905 85.51333897099315 0 0 -1 1 1.909859317102744 0 0 0
394 1 78.84498995288624 82.92069391962436 0 0 -1 1 1.909859317102744 0 0 0
284 1 73.76774371295822 83.05183409283022 0 0 -1 1 1.909859317102744 0 0 0
290 1 74.06108065807145 82.06697901631222 0 0 -1 1 1.909859317102744 0 0 0
297 1 74.60186485980245 83.8942686376028 0 0 -1 1 1.909859317102744 0 0 0
295 1 77.91052363102729 81.75755422002112 0 0 -1 1 1.909859317102744 0 0 0
396 1 76.72481325752986 83.61501497616776 0 0 -1 1 1.909859317102744 0 0 0
203 1 72.85017492766475 86.9426510560257 0 0 -1 1 1.909859317102744 0 -1 0
267 1 72.95364334929481 71.08141967934142 0 0 -1 1 1.909859317102744 0 0 0
281 1 70.80938117469842 82.9739840147357 0 0 -1 1 1.909859317102744 0 0 0
302 1 77.72816399384372 83.03729381705847 0 0 -1 1 1.909859317102744 0 -1 0
301 1 75.76409031413334 86.10806545023037 0 0 -1 1 1.909859317102744 0 -1 0
210 1 76.6266102979579 86.97205051892327 0 0 -1 1 1.909859317102744 0 -1 0
312 1 82.14607296142871 55.42424127245257 0 0 -1 1 1.909859317102744 0 0 0
313 1 83.08457943783917 53.971655278502375 0 0 -1 1 1.909859317102744 0 0 0
317 1 81.58972017051644 56.36322368454638 0 0 -1 1 1.909859317102744 0 0 0
318 1 85.40749959127034 55.508330865288876 0 0 -1 1 1.909859317102744 0 0 0
322 1 82.77283238139543 56.29633618608267 0 0 -1 1 1.909859317102744 0 0 0
400 1 84.26474895289671 54.610445533241275 0 0 -1 1 1.909859317102744 0 1 0
319 2 87.30851765560959 57.70017881673011 0 0 -1 1 0.954929658551372 0 0 0
300 2 79.79646781292784 55.03466933460596 0 0 -1 1 0.954929658551372 0 1 0
307 1 86.40245398406782 56.0315313021352 0 0 -1 1 1.909859317102744 0 0 0
328 2 79.72599449748964 58.51726420117208 0 0 -1 1 0.954929658551372 0 0 0
323 1 84.43851887354108 55.85886194705734 0 0 -1 1 1.909859317102744 0 0 0
324 1 82.17914529839138 57.425108259282155 0 0 -1 1 1.909859317102744 0 0 0
220 1 81.46289397878412 62.65268658719057 0 0 -1 1 1.909859317102744 0 0 0
315 1 85.46552790522777 56.65051972415916 0 0 -1 1 1.909859317102744 0 0 0
11 1 86.0122334025884 58.29703742462072 0 0 -1 1 1.909859317102744 -1 0 0
316 1 80.57472420645132 64.42301606143702 0 0 -1 1 1.909859317102744 0 0 0
327 2 82.87164548149224 59.33238617994227 0 0 -1 1 0.954929658551372 0 0 0
320 1 85.30289612441855 62.164609783221 0 0 -1 1 1.909859317102744 0 0 0
330 1 84.18492701790628 62.40051833085002 0 0 -1 1 1.909859317102744 0 0 0
325 1 84.11592125871395 61.15191139545201 0 0 -1 1 1.909859317102744 0 0 0
26 1 86.99389000687512 62.25711836625647 0 0 -1 1 1.909859317102744 -1 0 0
329 2 84.76210447276753 63.65837486853828 0 0 -1 1 0.954929658551372 0 0 0
347 1 82.96604205855013 70.05442683108268 0 0 -1 1 1.909859317102744 0 0 0
340 1 80.18290268346084 68.60369685811332 0 0 -1 1 1.909859317102744 0 0 0
334 2 83.11957921709524 65.75705118387485 0 0 -1 1 0.954929658551372 0 0 0
333 1 84.51397666585135 68.11641405506836 0 0 -1 1 1.909859317102744 0 0 0
335 1 82.90534742418684 68.02294366114447 0 0 -1 1 1.909859317102744 0 0 0
339 2 85.44126166164422 65.03040752141915 0 0 -1 1 0.954929658551372 0 0 0
348 1 82.32651073864432 69.20423260072508 0 0 -1 1 1.909859317102744 0 0 0
350 1 81.76184083037428 67.78172261187217 0 0 -1 1 1.909859317102744 0 0 0
351 1 81.07577654122926 70.47467126984587 0 0 -1 1 1.909859317102744 0 0 0
36 1 85.45686533601318 67.56886492470673 0 0 -1 1 1.909859317102744 -1 0 0
31 1 87.28012975025425 64.2382388455294 0 0 -1 1 1.909859317102744 -1 0 0
342 1 81.79395400509914 65.67071230847168 0 0 -1 1 1.909859317102744 0 0 0
337 2 79.16443236024548 69.07263284224352 0 0 -1 1 0.954929658551372 0 0 0
343 1 81.97115816007101 71.09841227889711 0 0 -1 1 1.909859317102744 0 0 0
383 1 80.50931453815855 74.58642798199612 0 0 -1 1 1.909859317102744 0 0 0
349 1 82.8770533572878 73.76825893743796 0 0 -1 1 1.909859317102744 0 0 0
344 1 81.91683071328524 72.623051191107 0 0 -1 1 1.909859317102744 0 0 0
358 1 84.05950605285555 73.45107266981132 0 0 -1 1 1.909859317102744 0 0 0
359 1 83.11152640644997 72.22418378323388 0 0 -1 1 1.909859317102744 0 0 0
362 1 84.50292081251524 75.09189755224571 0 0 -1 1 1.909859317102744 0 0 0
354 1 84.32779787993371 72.21661272132772 0 0 -1 1 1.909859317102744 0 0 0
364 1 85.40922020493683 72.90481828173041 0 0 -1 1 1.909859317102744 0 0 0
66 1 87.31285708107954 74.12702142367533 0 0 -1 1 1.909859317102744 -1 0 0
357 1 82.70499410040397 75.61761616016003 0 0 -1 1 1.909859317102744 0 0 0
352 1 83.440552256034 74.69140587773688 0 0 -1 1 1.909859317102744 0 0 0
387 1 80.52436433253625 76.06001693758664 0 0 -1 1 1.909859317102744 0 0 0
366 1 81.82258289287384 73.87141063217983 0 0 -1 1 1.909859317102744 0 0 0
372 1 84.60441728966401 78.74215534376923 0 0 -1 1 1.909859317102744 0 0 0
365 1 84.78618556843675 76.86167193485963 0 0 -1 1 1.909859317102744 0 0 0
363 1 84.04792175623442 76.09446187020313 0 0 -1 1 1.909859317102744 0 0 0
353 1 87.30909987190299 73.13836806293797 0 0 -1 1 1.909859317102744 0 0 0
369 1 85.37395709659414 74.34904462979641 0 0 -1 1 1.909859317102744 0 0 0
341 1 83.4828484200299 71.0602894716689 0 0 -1 1 1.909859317102744 0 0 0
62 1 86.19295996025065 73.59211194668498 0 0 -1 1 1.909859317102744 -1 0 0
367 1 83.23014372371179 77.05610467152863 0 0 -1 1 1.909859317102744 0 0 0
345 1 87.29029905928755 71.38425952567724 0 0 -1 1 1.909859317102744 0 0 0
373 1 81.80382766608707 78.03770489423292 0 0 -1 1 1.909859317102744 0 0 0
384 2 79.49598197171248 79.82505010083831 0 0 -1 1 0.954929658551372 0 0 0
368 1 85.52017480415289 79.17635543122714 0 0 -1 1 1.909859317102744 0 0 0
370 1 85.34306723566745 75.63288052486176 0 0 -1 1 1.909859317102744 0 0 0
374 1 86.17641380819002 76.70466272897798 0 0 -1 1 1.909859317102744 0 0 0
380 1 86.6676877036432 77.74571881125017 0 0 -1 1 1.909859317102744 0 0 0
71 1 87.252590921446 76.53290614423916 0 0 -1 1 1.909859317102744 -1 0 0
398 2 81.61472531982102 80.79078578338299 0 0 -1 1 0.954929658551372 0 0 0
86 1 83.07745371651227 79.94162912899016 0 0 -1 1 1.909859317102744 -1 0 0
385 1 84.30388150570181 79.84090100434018 0 0 -1 1 1.909859317102744 0 0 0
390 1 83.7924784112938 80.94481203214616 0 0 -1 1 1.909859317102744 0 0 0
91 1 86.20584139351787 80.32748285392577 0 0 -1 1 1.909859317102744 -1 0 0
375 1 85.06973126559441 80.50446323307666 0 0 -1 1 1.909859317102744 0 0 0
76 2 86.82681420685996 79.30731928029975 0 0 -1 1 0.954929658551372 -1 0 0
377 1 81.61884880462978 75.20598131496867 0 0 -1 1 1.909859317102744 0 0 0
388 1 84.17030000174354 81.92680581989266 0 0 -1 1 1.909859317102744 0 0 0
397 1 79.15003074102401 84.08557339190138 0 0 -1 1 1.909859317102744 0 0 0
309 1 85.99307414731341 86.1081786128546 0 0 -1 1 1.909859317102744 0 -1 0
393 1 79.91513980452368 82.69608810839972 0 0 -1 1 1.909859317102744 0 0 0
395 1 87.29083368850156 84.23607134159278 0 0 -1 1 1.909859317102744 0 0 0
389 2 83.06348967174766 84.46617656516459 0 0 -1 1 0.954929658551372 0 0 0
96 1 87.20158947492662 82.20293717816216 0 0 -1 1 1.909859317102744 -1 0 0
92 1 85.72242285825179 82.25364450400834 0 0 -1 1 1.909859317102744 -1 0 0
81 1 86.85726624880655 81.12556261293493 0 0 -1 1 1.909859317102744 -1 0 0
99 1 86.84306889523975 85.55278940520598 0 0 -1 1 1.909859317102744 -1 0 0
308 1 79.40863977937916 85.16424861742728 0 0 -1 1 1.909859317102744 0 -1 0
306 2 80.09067125990225 86.1452507442353 0 0 -1 1 0.954929658551372 0 -1 0
361 2 80.05953546127759 72.43962079572603 0 0 -1 1 0.954929658551372 0 0 0